; Created by cgenff_charmm2gmx.py

[ moleculetype ]
; Name			   nrexcl
DIF				 3

[ atoms ]
;	 nr		  type	resnr residue  atom   cgnr	   charge		mass  typeB    chargeB		massB
; residue	 1 DIF rtp DIF q	qsum
     1       FGR1      1    DIF     F1      1     -0.211     18.998   ;
     2       FGR1      1    DIF     F2      2     -0.196     18.998   ;
     3      OG311      1    DIF     O1      3     -0.545     15.999   ;
     4      OG311      1    DIF     O2      4     -0.516     15.999   ;
     5      OG2D1      1    DIF     O3      5     -0.432     15.999   ;
     6     CG2R67      1    DIF     C1      6     -0.002     12.011   ;
     7     CG2R67      1    DIF     C2      7      0.043     12.011   ;
     8     CG2R61      1    DIF     C3      8     -0.120     12.011   ;
     9     CG2R61      1    DIF     C4      9     -0.114     12.011   ;
    10     CG2R61      1    DIF     C5     10      0.213     12.011   ;
    11     CG2R66      1    DIF     C6     11      0.244     12.011   ;
    12     CG2R61      1    DIF     C7     12     -0.222     12.011   ;
    13     CG2R61      1    DIF     C8     13     -0.025     12.011   ;
    14     CG2R61      1    DIF     C9     14     -0.112     12.011   ;
    15     CG2R61      1    DIF    C10     15     -0.227     12.011   ;
    16     CG2R61      1    DIF    C11     16     -0.213     12.011   ;
    17     CG2R66      1    DIF    C12     17      0.294     12.011   ;
    18      CG2O2      1    DIF    C13     18      0.460     12.011   ;
    19      HGR61      1    DIF     H1     19      0.115      1.008   ;
    20      HGR61      1    DIF     H2     20      0.115      1.008   ;
    21      HGR61      1    DIF     H3     21      0.115      1.008   ;
    22      HGR61      1    DIF     H4     22      0.115      1.008   ;
    23      HGR62      1    DIF     H5     23      0.194      1.008   ;
    24      HGR62      1    DIF     H6     24      0.177      1.008   ;
    25       HGP1      1    DIF     H7     25      0.420      1.008   ;
    26       HGP1      1    DIF     H8     26      0.430      1.008   ;

[ bonds ]
;	ai	  aj funct			  c0			c1			  c2			c3
    1    11	 1 ;        FGR1     CG2R66
    2    17	 1 ;        FGR1     CG2R66
    3    13	 1 ;       OG311     CG2R61
    3    25	 1 ;       OG311       HGP1
    4    18	 1 ;       OG311      CG2O2
    4    26	 1 ;       OG311       HGP1
    5    18	 1 ;       OG2D1      CG2O2
    6     7	 1 ;      CG2R67     CG2R67
    6     8	 1 ;      CG2R67     CG2R61
    6     9	 1 ;      CG2R67     CG2R61
    7    11	 1 ;      CG2R67     CG2R66
    7    12	 1 ;      CG2R67     CG2R61
    8    10	 1 ;      CG2R61     CG2R61
    8    19	 1 ;      CG2R61      HGR61
    9    14	 1 ;      CG2R61     CG2R61
    9    20	 1 ;      CG2R61      HGR61
   10    13	 1 ;      CG2R61     CG2R61
   10    18	 1 ;      CG2R61      CG2O2
   11    15	 1 ;      CG2R66     CG2R61
   12    16	 1 ;      CG2R61     CG2R61
   12    21	 1 ;      CG2R61      HGR61
   13    14	 1 ;      CG2R61     CG2R61
   14    22	 1 ;      CG2R61      HGR61
   15    17	 1 ;      CG2R61     CG2R66
   15    23	 1 ;      CG2R61      HGR62
   16    17	 1 ;      CG2R61     CG2R66
   16    24	 1 ;      CG2R61      HGR62

[ pairs ]
;	ai	  aj funct			  c0			c1			  c2			c3
    1     6	 1
    1    12	 1
    1    17	 1
    1    23	 1
    2    11	 1
    2    23	 1
    2    12	 1
    2    24	 1
    3     8	 1
    3    18	 1
    3     9	 1
    3    22	 1
    4     8	 1
    4    13	 1
    5    26	 1
    5     8	 1
    5    13	 1
    6    15	 1
    6    16	 1
    6    21	 1
    6    13	 1
    6    18	 1
    6    22	 1
    7    10	 1
    7    19	 1
    7    14	 1
    7    20	 1
    7    17	 1
    7    23	 1
    7    24	 1
    8    11	 1
    8    12	 1
    8    14	 1
    8    20	 1
    9    11	 1
    9    12	 1
    9    10	 1
    9    19	 1
   10    25	 1
   10    26	 1
   10    22	 1
   11    16	 1
   11    21	 1
   12    15	 1
   13    19	 1
   13    20	 1
   14    25	 1
   14    18	 1
   15    24	 1
   16    23	 1
   17    21	 1
   18    19	 1
   20    22	 1
   21    24	 1

[ angles ]
;	ai	  aj	ak funct			c0			  c1			c2			  c3
   13     3    25	5 ;     CG2R61      OG311       HGP1
   18     4    26	5 ;      CG2O2      OG311       HGP1
    7     6     8	5 ;     CG2R67     CG2R67     CG2R61
    7     6     9	5 ;     CG2R67     CG2R67     CG2R61
    8     6     9	5 ;     CG2R61     CG2R67     CG2R61
    6     7    11	5 ;     CG2R67     CG2R67     CG2R66
    6     7    12	5 ;     CG2R67     CG2R67     CG2R61
   11     7    12	5 ;     CG2R66     CG2R67     CG2R61
    6     8    10	5 ;     CG2R67     CG2R61     CG2R61
    6     8    19	5 ;     CG2R67     CG2R61      HGR61
   10     8    19	5 ;     CG2R61     CG2R61      HGR61
    6     9    14	5 ;     CG2R67     CG2R61     CG2R61
    6     9    20	5 ;     CG2R67     CG2R61      HGR61
   14     9    20	5 ;     CG2R61     CG2R61      HGR61
    8    10    13	5 ;     CG2R61     CG2R61     CG2R61
    8    10    18	5 ;     CG2R61     CG2R61      CG2O2
   13    10    18	5 ;     CG2R61     CG2R61      CG2O2
    1    11     7	5 ;       FGR1     CG2R66     CG2R67
    1    11    15	5 ;       FGR1     CG2R66     CG2R61
    7    11    15	5 ;     CG2R67     CG2R66     CG2R61
    7    12    16	5 ;     CG2R67     CG2R61     CG2R61
    7    12    21	5 ;     CG2R67     CG2R61      HGR61
   16    12    21	5 ;     CG2R61     CG2R61      HGR61
    3    13    10	5 ;      OG311     CG2R61     CG2R61
    3    13    14	5 ;      OG311     CG2R61     CG2R61
   10    13    14	5 ;     CG2R61     CG2R61     CG2R61
    9    14    13	5 ;     CG2R61     CG2R61     CG2R61
    9    14    22	5 ;     CG2R61     CG2R61      HGR61
   13    14    22	5 ;     CG2R61     CG2R61      HGR61
   11    15    17	5 ;     CG2R66     CG2R61     CG2R66
   11    15    23	5 ;     CG2R66     CG2R61      HGR62
   17    15    23	5 ;     CG2R66     CG2R61      HGR62
   12    16    17	5 ;     CG2R61     CG2R61     CG2R66
   12    16    24	5 ;     CG2R61     CG2R61      HGR62
   17    16    24	5 ;     CG2R66     CG2R61      HGR62
    2    17    15	5 ;       FGR1     CG2R66     CG2R61
    2    17    16	5 ;       FGR1     CG2R66     CG2R61
   15    17    16	5 ;     CG2R61     CG2R66     CG2R61
    4    18     5	5 ;      OG311      CG2O2      OG2D1
    4    18    10	5 ;      OG311      CG2O2     CG2R61
    5    18    10	5 ;      OG2D1      CG2O2     CG2R61

[ dihedrals ]
;	ai	  aj	ak	  al funct			  c0			c1			  c2			c3			  c4			c5
   25     3    13    10	 9 ;       HGP1      OG311     CG2R61     CG2R61
   25     3    13    14	 9 ;       HGP1      OG311     CG2R61     CG2R61
   26     4    18     5	 9 ;       HGP1      OG311      CG2O2      OG2D1
   26     4    18    10	 9 ;       HGP1      OG311      CG2O2     CG2R61
    8     6     7    11	 9 ;     CG2R61     CG2R67     CG2R67     CG2R66
    8     6     7    12	 9 ;     CG2R61     CG2R67     CG2R67     CG2R61
    9     6     7    11	 9 ;     CG2R61     CG2R67     CG2R67     CG2R66
    9     6     7    12	 9 ;     CG2R61     CG2R67     CG2R67     CG2R61
    7     6     8    10	 9 ;     CG2R67     CG2R67     CG2R61     CG2R61
    7     6     8    19	 9 ;     CG2R67     CG2R67     CG2R61      HGR61
    9     6     8    10	 9 ;     CG2R61     CG2R67     CG2R61     CG2R61
    9     6     8    19	 9 ;     CG2R61     CG2R67     CG2R61      HGR61
    7     6     9    14	 9 ;     CG2R67     CG2R67     CG2R61     CG2R61
    7     6     9    20	 9 ;     CG2R67     CG2R67     CG2R61      HGR61
    8     6     9    14	 9 ;     CG2R61     CG2R67     CG2R61     CG2R61
    8     6     9    20	 9 ;     CG2R61     CG2R67     CG2R61      HGR61
    6     7    11     1	 9 ;     CG2R67     CG2R67     CG2R66       FGR1
    6     7    11    15	 9 ;     CG2R67     CG2R67     CG2R66     CG2R61
   12     7    11     1	 9 ;     CG2R61     CG2R67     CG2R66       FGR1
   12     7    11    15	 9 ;     CG2R61     CG2R67     CG2R66     CG2R61
    6     7    12    16	 9 ;     CG2R67     CG2R67     CG2R61     CG2R61
    6     7    12    21	 9 ;     CG2R67     CG2R67     CG2R61      HGR61
   11     7    12    16	 9 ;     CG2R66     CG2R67     CG2R61     CG2R61
   11     7    12    21	 9 ;     CG2R66     CG2R67     CG2R61      HGR61
    6     8    10    13	 9 ;     CG2R67     CG2R61     CG2R61     CG2R61
    6     8    10    18	 9 ;     CG2R67     CG2R61     CG2R61      CG2O2
   19     8    10    13	 9 ;      HGR61     CG2R61     CG2R61     CG2R61
   19     8    10    18	 9 ;      HGR61     CG2R61     CG2R61      CG2O2
    6     9    14    13	 9 ;     CG2R67     CG2R61     CG2R61     CG2R61
    6     9    14    22	 9 ;     CG2R67     CG2R61     CG2R61      HGR61
   20     9    14    13	 9 ;      HGR61     CG2R61     CG2R61     CG2R61
   20     9    14    22	 9 ;      HGR61     CG2R61     CG2R61      HGR61
    8    10    13     3	 9 ;     CG2R61     CG2R61     CG2R61      OG311
    8    10    13    14	 9 ;     CG2R61     CG2R61     CG2R61     CG2R61
   18    10    13     3	 9 ;      CG2O2     CG2R61     CG2R61      OG311
   18    10    13    14	 9 ;      CG2O2     CG2R61     CG2R61     CG2R61
    8    10    18     4	 9 ;     CG2R61     CG2R61      CG2O2      OG311
    8    10    18     5	 9 ;     CG2R61     CG2R61      CG2O2      OG2D1
   13    10    18     4	 9 ;     CG2R61     CG2R61      CG2O2      OG311
   13    10    18     5	 9 ;     CG2R61     CG2R61      CG2O2      OG2D1
    1    11    15    17	 9 ;       FGR1     CG2R66     CG2R61     CG2R66
    1    11    15    23	 9 ;       FGR1     CG2R66     CG2R61      HGR62
    7    11    15    17	 9 ;     CG2R67     CG2R66     CG2R61     CG2R66
    7    11    15    23	 9 ;     CG2R67     CG2R66     CG2R61      HGR62
    7    12    16    17	 9 ;     CG2R67     CG2R61     CG2R61     CG2R66
    7    12    16    24	 9 ;     CG2R67     CG2R61     CG2R61      HGR62
   21    12    16    17	 9 ;      HGR61     CG2R61     CG2R61     CG2R66
   21    12    16    24	 9 ;      HGR61     CG2R61     CG2R61      HGR62
    3    13    14     9	 9 ;      OG311     CG2R61     CG2R61     CG2R61
    3    13    14    22	 9 ;      OG311     CG2R61     CG2R61      HGR61
   10    13    14     9	 9 ;     CG2R61     CG2R61     CG2R61     CG2R61
   10    13    14    22	 9 ;     CG2R61     CG2R61     CG2R61      HGR61
   11    15    17     2	 9 ;     CG2R66     CG2R61     CG2R66       FGR1
   11    15    17    16	 9 ;     CG2R66     CG2R61     CG2R66     CG2R61
   23    15    17     2	 9 ;      HGR62     CG2R61     CG2R66       FGR1
   23    15    17    16	 9 ;      HGR62     CG2R61     CG2R66     CG2R61
   12    16    17     2	 9 ;     CG2R61     CG2R61     CG2R66       FGR1
   12    16    17    15	 9 ;     CG2R61     CG2R61     CG2R66     CG2R61
   24    16    17     2	 9 ;      HGR62     CG2R61     CG2R66       FGR1
   24    16    17    15	 9 ;      HGR62     CG2R61     CG2R66     CG2R61

[ dihedrals ]
;	ai	  aj	ak	  al funct			  c0			c1			  c2			c3
   18    10     5     4	 2

