#include "/home/ugo/Scrivania/Transthyretin/molecular_dynamics/charmm36-jul2022.ff/forcefield.itp"

; additional params for the molecule
#include "tol.prm"

#include "tol.itp"

#include "/home/ugo/Scrivania/Transthyretin/molecular_dynamics/charmm36-jul2022.ff/tip3p.itp"
#ifdef POSRES_WATER
; Position restraint for each water oxygen
[ position_restraints ]
;  i funct		 fcx		fcy		   fcz
   1	1		1000	   1000		  1000
#endif

; Include topology for ions
#include "/home/ugo/Scrivania/Transthyretin/molecular_dynamics/charmm36-jul2022.ff/ions.itp"

[ system ]
; Name
mol

[ molecules ]
; Compound		  #mols
TOL			1

