; Created by cgenff_charmm2gmx.py

[ moleculetype ]
; Name			   nrexcl
TOL				 3

[ atoms ]
;	 nr		  type	resnr residue  atom   cgnr	   charge		mass  typeB    chargeB		massB
; residue	 1 TOL rtp TOL q	qsum
     1      OG2D3      1    TOL     O1      1     -0.449     15.999   ;
     2      OG311      1    TOL     O2      2     -0.538     15.999   ;
     3      OG311      1    TOL     O3      3     -0.493     15.999   ;
     4      OG2N1      1    TOL     O4      4     -0.311     15.999   ;
     5      OG2N1      1    TOL     O5      5     -0.311     15.999   ;
     6      NG2O1      1    TOL      N      6      0.236     14.007   ;
     7     CG2R61      1    TOL     C1      7      0.143     12.011   ;
     8     CG2R61      1    TOL     C2      8      0.124     12.011   ;
     9      CG2O5      1    TOL     C3      9      0.177     12.011   ;
    10     CG2R61      1    TOL     C4     10     -0.207     12.011   ;
    11     CG2R61      1    TOL     C5     11     -0.105     12.011   ;
    12     CG2R61      1    TOL     C6     12      0.315     12.011   ;
    13     CG2R61      1    TOL     C7     13      0.131     12.011   ;
    14     CG2R61      1    TOL     C8     14      0.028     12.011   ;
    15     CG2R61      1    TOL     C9     15     -0.126     12.011   ;
    16     CG2R61      1    TOL    C10     16     -0.126     12.011   ;
    17     CG2R61      1    TOL    C11     17      0.155     12.011   ;
    18     CG2R61      1    TOL    C12     18     -0.115     12.011   ;
    19     CG2R61      1    TOL    C13     19     -0.115     12.011   ;
    20      CG331      1    TOL    C14     20     -0.264     12.011   ;
    21      HGR61      1    TOL     H1     21      0.166      1.008   ;
    22      HGR61      1    TOL     H2     22      0.115      1.008   ;
    23      HGR61      1    TOL     H3     23      0.115      1.008   ;
    24      HGR61      1    TOL     H4     24      0.115      1.008   ;
    25      HGR61      1    TOL     H5     25      0.115      1.008   ;
    26      HGR61      1    TOL     H6     26      0.115      1.008   ;
    27       HGA3      1    TOL     H7     27      0.090      1.008   ;
    28       HGA3      1    TOL     H8     28      0.090      1.008   ;
    29       HGA3      1    TOL     H9     29      0.090      1.008   ;
    30       HGP1      1    TOL    H10     30      0.420      1.008   ;
    31       HGP1      1    TOL    H11     31      0.420      1.008   ;

[ bonds ]
;	ai	  aj funct			  c0			c1			  c2			c3
    1     9	 1 ;       OG2D3      CG2O5
    2    13	 1 ;       OG311     CG2R61
    2    30	 1 ;       OG311       HGP1
    3    17	 1 ;       OG311     CG2R61
    3    31	 1 ;       OG311       HGP1
    4     6	 1 ;       OG2N1      NG2O1
    5     6	 1 ;       OG2N1      NG2O1
    6    12	 1 ;       NG2O1     CG2R61
    7     9	 1 ;      CG2R61      CG2O5
    7    10	 1 ;      CG2R61     CG2R61
    7    11	 1 ;      CG2R61     CG2R61
    8     9	 1 ;      CG2R61      CG2O5
    8    15	 1 ;      CG2R61     CG2R61
    8    16	 1 ;      CG2R61     CG2R61
   10    12	 1 ;      CG2R61     CG2R61
   10    21	 1 ;      CG2R61      HGR61
   11    13	 1 ;      CG2R61     CG2R61
   11    22	 1 ;      CG2R61      HGR61
   12    17	 1 ;      CG2R61     CG2R61
   13    17	 1 ;      CG2R61     CG2R61
   14    18	 1 ;      CG2R61     CG2R61
   14    19	 1 ;      CG2R61     CG2R61
   14    20	 1 ;      CG2R61      CG331
   15    18	 1 ;      CG2R61     CG2R61
   15    23	 1 ;      CG2R61      HGR61
   16    19	 1 ;      CG2R61     CG2R61
   16    24	 1 ;      CG2R61      HGR61
   18    25	 1 ;      CG2R61      HGR61
   19    26	 1 ;      CG2R61      HGR61
   20    27	 1 ;       CG331       HGA3
   20    28	 1 ;       CG331       HGA3
   20    29	 1 ;       CG331       HGA3

[ pairs ]
;	ai	  aj funct			  c0			c1			  c2			c3
    1    10	 1
    1    11	 1
    1    15	 1
    1    16	 1
    2     7	 1
    2    22	 1
    2     3	 1
    2    12	 1
    3     6	 1
    3    10	 1
    3    11	 1
    4    10	 1
    4    17	 1
    5    10	 1
    5    17	 1
    6     7	 1
    6    21	 1
    6    13	 1
    7    15	 1
    7    16	 1
    7    17	 1
    8    10	 1
    8    11	 1
    8    14	 1
    8    25	 1
    8    26	 1
    9    12	 1
    9    21	 1
    9    13	 1
    9    22	 1
    9    18	 1
    9    23	 1
    9    19	 1
    9    24	 1
   10    13	 1
   10    22	 1
   11    30	 1
   11    12	 1
   11    21	 1
   12    31	 1
   13    31	 1
   14    23	 1
   14    24	 1
   15    19	 1
   15    24	 1
   15    20	 1
   16    18	 1
   16    23	 1
   16    20	 1
   17    30	 1
   17    21	 1
   17    22	 1
   18    26	 1
   18    27	 1
   18    28	 1
   18    29	 1
   19    25	 1
   19    27	 1
   19    28	 1
   19    29	 1
   20    25	 1
   20    26	 1
   23    25	 1
   24    26	 1

[ angles ]
;	ai	  aj	ak funct			c0			  c1			c2			  c3
   13     2    30	5 ;     CG2R61      OG311       HGP1
   17     3    31	5 ;     CG2R61      OG311       HGP1
    4     6     5	5 ;      OG2N1      NG2O1      OG2N1
    4     6    12	5 ;      OG2N1      NG2O1     CG2R61
    5     6    12	5 ;      OG2N1      NG2O1     CG2R61
    9     7    10	5 ;      CG2O5     CG2R61     CG2R61
    9     7    11	5 ;      CG2O5     CG2R61     CG2R61
   10     7    11	5 ;     CG2R61     CG2R61     CG2R61
    9     8    15	5 ;      CG2O5     CG2R61     CG2R61
    9     8    16	5 ;      CG2O5     CG2R61     CG2R61
   15     8    16	5 ;     CG2R61     CG2R61     CG2R61
    1     9     7	5 ;      OG2D3      CG2O5     CG2R61
    1     9     8	5 ;      OG2D3      CG2O5     CG2R61
    7     9     8	5 ;     CG2R61      CG2O5     CG2R61
    7    10    12	5 ;     CG2R61     CG2R61     CG2R61
    7    10    21	5 ;     CG2R61     CG2R61      HGR61
   12    10    21	5 ;     CG2R61     CG2R61      HGR61
    7    11    13	5 ;     CG2R61     CG2R61     CG2R61
    7    11    22	5 ;     CG2R61     CG2R61      HGR61
   13    11    22	5 ;     CG2R61     CG2R61      HGR61
    6    12    10	5 ;      NG2O1     CG2R61     CG2R61
    6    12    17	5 ;      NG2O1     CG2R61     CG2R61
   10    12    17	5 ;     CG2R61     CG2R61     CG2R61
    2    13    11	5 ;      OG311     CG2R61     CG2R61
    2    13    17	5 ;      OG311     CG2R61     CG2R61
   11    13    17	5 ;     CG2R61     CG2R61     CG2R61
   18    14    19	5 ;     CG2R61     CG2R61     CG2R61
   18    14    20	5 ;     CG2R61     CG2R61      CG331
   19    14    20	5 ;     CG2R61     CG2R61      CG331
    8    15    18	5 ;     CG2R61     CG2R61     CG2R61
    8    15    23	5 ;     CG2R61     CG2R61      HGR61
   18    15    23	5 ;     CG2R61     CG2R61      HGR61
    8    16    19	5 ;     CG2R61     CG2R61     CG2R61
    8    16    24	5 ;     CG2R61     CG2R61      HGR61
   19    16    24	5 ;     CG2R61     CG2R61      HGR61
    3    17    12	5 ;      OG311     CG2R61     CG2R61
    3    17    13	5 ;      OG311     CG2R61     CG2R61
   12    17    13	5 ;     CG2R61     CG2R61     CG2R61
   14    18    15	5 ;     CG2R61     CG2R61     CG2R61
   14    18    25	5 ;     CG2R61     CG2R61      HGR61
   15    18    25	5 ;     CG2R61     CG2R61      HGR61
   14    19    16	5 ;     CG2R61     CG2R61     CG2R61
   14    19    26	5 ;     CG2R61     CG2R61      HGR61
   16    19    26	5 ;     CG2R61     CG2R61      HGR61
   14    20    27	5 ;     CG2R61      CG331       HGA3
   14    20    28	5 ;     CG2R61      CG331       HGA3
   14    20    29	5 ;     CG2R61      CG331       HGA3
   27    20    28	5 ;       HGA3      CG331       HGA3
   27    20    29	5 ;       HGA3      CG331       HGA3
   28    20    29	5 ;       HGA3      CG331       HGA3

[ dihedrals ]
;	ai	  aj	ak	  al funct			  c0			c1			  c2			c3			  c4			c5
   30     2    13    11	 9 ;       HGP1      OG311     CG2R61     CG2R61
   30     2    13    17	 9 ;       HGP1      OG311     CG2R61     CG2R61
   31     3    17    12	 9 ;       HGP1      OG311     CG2R61     CG2R61
   31     3    17    13	 9 ;       HGP1      OG311     CG2R61     CG2R61
    4     6    12    10	 9 ;      OG2N1      NG2O1     CG2R61     CG2R61
    4     6    12    17	 9 ;      OG2N1      NG2O1     CG2R61     CG2R61
    5     6    12    10	 9 ;      OG2N1      NG2O1     CG2R61     CG2R61
    5     6    12    17	 9 ;      OG2N1      NG2O1     CG2R61     CG2R61
   10     7     9     1	 9 ;     CG2R61     CG2R61      CG2O5      OG2D3
   10     7     9     8	 9 ;     CG2R61     CG2R61      CG2O5     CG2R61
   11     7     9     1	 9 ;     CG2R61     CG2R61      CG2O5      OG2D3
   11     7     9     8	 9 ;     CG2R61     CG2R61      CG2O5     CG2R61
    9     7    10    12	 9 ;      CG2O5     CG2R61     CG2R61     CG2R61
    9     7    10    21	 9 ;      CG2O5     CG2R61     CG2R61      HGR61
   11     7    10    12	 9 ;     CG2R61     CG2R61     CG2R61     CG2R61
   11     7    10    21	 9 ;     CG2R61     CG2R61     CG2R61      HGR61
    9     7    11    13	 9 ;      CG2O5     CG2R61     CG2R61     CG2R61
    9     7    11    22	 9 ;      CG2O5     CG2R61     CG2R61      HGR61
   10     7    11    13	 9 ;     CG2R61     CG2R61     CG2R61     CG2R61
   10     7    11    22	 9 ;     CG2R61     CG2R61     CG2R61      HGR61
   15     8     9     1	 9 ;     CG2R61     CG2R61      CG2O5      OG2D3
   15     8     9     7	 9 ;     CG2R61     CG2R61      CG2O5     CG2R61
   16     8     9     1	 9 ;     CG2R61     CG2R61      CG2O5      OG2D3
   16     8     9     7	 9 ;     CG2R61     CG2R61      CG2O5     CG2R61
    9     8    15    18	 9 ;      CG2O5     CG2R61     CG2R61     CG2R61
    9     8    15    23	 9 ;      CG2O5     CG2R61     CG2R61      HGR61
   16     8    15    18	 9 ;     CG2R61     CG2R61     CG2R61     CG2R61
   16     8    15    23	 9 ;     CG2R61     CG2R61     CG2R61      HGR61
    9     8    16    19	 9 ;      CG2O5     CG2R61     CG2R61     CG2R61
    9     8    16    24	 9 ;      CG2O5     CG2R61     CG2R61      HGR61
   15     8    16    19	 9 ;     CG2R61     CG2R61     CG2R61     CG2R61
   15     8    16    24	 9 ;     CG2R61     CG2R61     CG2R61      HGR61
    7    10    12     6	 9 ;     CG2R61     CG2R61     CG2R61      NG2O1
    7    10    12    17	 9 ;     CG2R61     CG2R61     CG2R61     CG2R61
   21    10    12     6	 9 ;      HGR61     CG2R61     CG2R61      NG2O1
   21    10    12    17	 9 ;      HGR61     CG2R61     CG2R61     CG2R61
    7    11    13     2	 9 ;     CG2R61     CG2R61     CG2R61      OG311
    7    11    13    17	 9 ;     CG2R61     CG2R61     CG2R61     CG2R61
   22    11    13     2	 9 ;      HGR61     CG2R61     CG2R61      OG311
   22    11    13    17	 9 ;      HGR61     CG2R61     CG2R61     CG2R61
    6    12    17     3	 9 ;      NG2O1     CG2R61     CG2R61      OG311
    6    12    17    13	 9 ;      NG2O1     CG2R61     CG2R61     CG2R61
   10    12    17     3	 9 ;     CG2R61     CG2R61     CG2R61      OG311
   10    12    17    13	 9 ;     CG2R61     CG2R61     CG2R61     CG2R61
    2    13    17     3	 9 ;      OG311     CG2R61     CG2R61      OG311
    2    13    17    12	 9 ;      OG311     CG2R61     CG2R61     CG2R61
   11    13    17     3	 9 ;     CG2R61     CG2R61     CG2R61      OG311
   11    13    17    12	 9 ;     CG2R61     CG2R61     CG2R61     CG2R61
   19    14    18    15	 9 ;     CG2R61     CG2R61     CG2R61     CG2R61
   19    14    18    25	 9 ;     CG2R61     CG2R61     CG2R61      HGR61
   20    14    18    15	 9 ;      CG331     CG2R61     CG2R61     CG2R61
   20    14    18    25	 9 ;      CG331     CG2R61     CG2R61      HGR61
   18    14    19    16	 9 ;     CG2R61     CG2R61     CG2R61     CG2R61
   18    14    19    26	 9 ;     CG2R61     CG2R61     CG2R61      HGR61
   20    14    19    16	 9 ;      CG331     CG2R61     CG2R61     CG2R61
   20    14    19    26	 9 ;      CG331     CG2R61     CG2R61      HGR61
   18    14    20    27	 9 ;     CG2R61     CG2R61      CG331       HGA3
   18    14    20    28	 9 ;     CG2R61     CG2R61      CG331       HGA3
   18    14    20    29	 9 ;     CG2R61     CG2R61      CG331       HGA3
   19    14    20    27	 9 ;     CG2R61     CG2R61      CG331       HGA3
   19    14    20    28	 9 ;     CG2R61     CG2R61      CG331       HGA3
   19    14    20    29	 9 ;     CG2R61     CG2R61      CG331       HGA3
    8    15    18    14	 9 ;     CG2R61     CG2R61     CG2R61     CG2R61
    8    15    18    25	 9 ;     CG2R61     CG2R61     CG2R61      HGR61
   23    15    18    14	 9 ;      HGR61     CG2R61     CG2R61     CG2R61
   23    15    18    25	 9 ;      HGR61     CG2R61     CG2R61      HGR61
    8    16    19    14	 9 ;     CG2R61     CG2R61     CG2R61     CG2R61
    8    16    19    26	 9 ;     CG2R61     CG2R61     CG2R61      HGR61
   24    16    19    14	 9 ;      HGR61     CG2R61     CG2R61     CG2R61
   24    16    19    26	 9 ;      HGR61     CG2R61     CG2R61      HGR61

[ dihedrals ]
;	ai	  aj	ak	  al funct			  c0			c1			  c2			c3
    9     7     8     1	 2

